 &FCI NORB=18,NELEC=14,MS2=0,
  ORBSYM=1,1,1,1,1,1,1,1,1,1,1,1,1,1,1,1,1,1,
  ISYM=1,
 &END
 2.323747945954686    1    1    1    1
 -7.454546853934152e-12    1    1    2    1
 2.325663803447255    1    1    2    2
 -0.2051320762539988    1    1    3    1
 4.890987788386258e-13    1    1    3    2
 0.8951672692594458    1    1    3    3
 -1.094865192431682e-12    1    1    4    1
 0.1818428711914819    1    1    4    2
 5.921118630125566e-13    1    1    4    3
 0.6711417910052816    1    1    4    4
 -1.002255533066003e-15    1    1    5    3
 0.7104961064116084    1    1    5    5
 0.7104961064116073    1    1    6    6
 0.07321772553054394    1    1    7    1
 -5.782895863559734e-14    1    1    7    2
 0.1095537299372634    1    1    7    3
 -1.03531246076205e-12    1    1    7    4
 0.699314589454285    1    1    7    7
 3.916777926299408e-13    1    1    8    5
 -8.707715538208705e-13    1    1    8    6
 0.6130409214469075    1    1    8    8
 -8.712960908319189e-13    1    1    9    5
 -3.918358693066892e-13    1    1    9    6
 0.6130409214469077    1    1    9    9
 -6.57700612450695e-13    1    1   10    1
 0.1062550809035185    1    1   10    2
 4.301365036721294e-13    1    1   10    3
 0.1399843081996511    1    1   10    4
 -9.39578276293318e-14    1    1   10    7
 0.397332316260311    1    1   10   10
 0.01882502567713838    1    1   11    1
 -8.908217045966449e-14    1    1   11    2
 -0.1077080671557352    1    1   11    3
 6.308408656563458e-14    1    1   11    4
 1.345932067686404e-15    1    1   11    5
 -0.1376512189449256    1    1   11    7
 2.199351811782435e-13    1    1   11   10
 0.4599596137900652    1    1   11   11
 1.212619911757682e-15    1    1   12    4
 -0.1211444512000681    1    1   12    5
 0.2070094022893395    1    1   12    6
 -1.363808409193795e-15    1    1   12    7
 -5.832378308610886e-13    1    1   12    8
 6.313179146122394e-14    1    1   12    9
 0.5834247887043084    1    1   12   12
 0.2070094022893396    1    1   13    5
 0.1211444512000679    1    1   13    6
 1.462238585682715e-15    1    1   13    7
 -6.301469762659551e-14    1    1   13    8
 -5.88112891719561e-13    1    1   13    9
 0.583424788704308    1    1   13   13
 -0.1583859193087297    1    1   14    1
 2.953590876649675e-13    1    1   14    2
 0.1172881523423182    1    1   14    3
 7.670912516299921e-13    1    1   14    4
 1.302032303413791e-15    1    1   14    5
 -0.1798150978983485    1    1   14    7
 4.35082525562791e-13    1    1   14   10
 -0.009326472206691465    1    1   14   11
 0.5762543199317186    1    1   14   14
 -3.962186210636903e-13    1    1   15    5
 7.722229702477462e-13    1    1   15    6
 -0.2756959041428815    1    1   15    8
 0.01410924016839643    1    1   15    9
 9.846158752961718e-13    1    1   15   12
 5.489535150234037e-14    1    1   15   13
 0.6639136407460174    1    1   15   15
 7.680123897957358e-13    1    1   16    5
 3.944370871589165e-13    1    1   16    6
 -0.01410924016839631    1    1   16    8
 -0.2756959041428814    1    1   16    9
 -5.481314187261166e-14    1    1   16   12
 9.85208442605412e-13    1    1   16   13
 0.6639136407460166    1    1   16   16
 -2.879727503007391e-13    1    1   17    1
 0.06002098362277473    1    1   17    2
 -3.042754308062168e-13    1    1   17    3
 0.1622996849329734    1    1   17    4
 -8.717263022539612e-13    1    1   17    7
 0.01113952707550864    1    1   17   10
 3.501365863911587e-13    1    1   17   11
 8.129425951852731e-13    1    1   17   14
 0.6692480147417159    1    1   17   17
 -1.126916851393149e-12    1    1   18    1
 0.1697770559405784    1    1   18    2
 1.122021529506578e-12    1    1   18    3
 0.07944904663292453    1    1   18    4
 5.797667033957676e-13    1    1   18    7
 0.1554347823324074    1    1   18   10
 -4.679104326221761e-13    1    1   18   11
 1.781348506202374e-13    1    1   18   14
 -0.2247565766678807    1    1   18   17
 0.874077580963402    1    1   18   18
 -7.454911471124759e-12    2    1    1    1
 1.796110700521871    2    1    2    1
 7.446800229411743e-12    2    1    2    2
 4.586835062160913e-13    2    1    3    1
 -0.2201729359331279    2    1    3    2
 -1.569328434564143e-15    2    1    3    3
 0.1721160452972363    2    1    4    1
 3.540729992188019e-13    2    1    4    2
 -0.1442774307107847    2    1    4    3
 -2.691033160195921e-14    2    1    4    4
 -2.441022972565113e-15    2    1    5    4
 -2.35922392732846e-15    2    1    5    5
 -2.37180067252929e-15    2    1    6    6
 -1.004300267080926e-13    2    1    7    1
 0.05292722082215545    2    1    7    2
 -7.136435539734087e-15    2    1    7    3
 0.2489929135000077    2    1    7    4
 1.235722245319324e-15    2    1    7    5
 2.532349330230943e-14    2    1    7    7
 -0.09441128061629148    2    1    8    5
 0.2098571959702498    2    1    8    6
 -1.553053218528019e-15    2    1    8    7
 1.374063623299504e-15    2    1    8    8
 0.2098571959702501    2    1    9    5
 0.09441128061629155    2    1    9    6
 1.700066425478201e-15    2    1    9    7
 0.1052678752683974    2    1   10    1
 2.172325362127803e-13    2    1   10    2
 -0.1038069605088592    2    1   10    3
 -1.86612877928205e-15    2    1   10    4
 0.02393925178205972    2    1   10    7
 -2.525757381022231e-15    2    1   10   10
 -6.47455687967282e-14    2    1   11    1
 0.03051480459017428    2    1   11    2
 -0.014007087873987    2    1   11    4
 -2.43685280287842e-15    2    1   11    7
 -0.05269724262536293    2    1   11   10
 3.989863994746656e-15    2    1   11   11
 2.139774631353814e-15    2    1   12    5
 -3.170196987952248e-15    2    1   12    6
 0.1397100473917817    2    1   12    8
 -0.01496646895070273    2    1   12    9
 -7.399369813154873e-15    2    1   12   12
 -6.470247514850369e-15    2    1   13    5
 -3.836774647991703e-15    2    1   13    6
 0.01496646895070269    2    1   13    8
 0.1397100473917819    2    1   13    9
 -1.54006581792876e-14    2    1   13   13
 3.137023179742258e-13    2    1   14    1
 -0.1496066308765368    2    1   14    2
 -2.970470007121473e-15    2    1   14    3
 -0.1815775200364329    2    1   14    4
 -7.153999614928352e-15    2    1   14    7
 -0.1049055915993071    2    1   14   10
 1.325328735646281e-15    2    1   14   11
 -8.79071121451247e-15    2    1   14   14
 0.09573691897844559    2    1   15    5
 -0.1866695765729284    2    1   15    6
 1.41822406810137e-15    2    1   15    7
 -2.526875464512607e-15    2    1   15    8
 -0.237158382449384    2    1   15   12
 -0.01319628420934245    2    1   15   13
 7.7678194043316e-15    2    1   15   15
 -0.1866695765729283    2    1   16    5
 -0.09573691897844536    2    1   16    6
 -1.558259563292836e-15    2    1   16    7
 -5.034167527284694e-15    2    1   16    9
 0.01319628420934254    2    1   16   12
 -0.2371583824493836    2    1   16   13
 1.684763439868675e-14    2    1   16   16
 0.0405668417151455    2    1   17    1
 8.884798279040762e-14    2    1   17    2
 0.07269639964253183    2    1   17    3
 -7.508100044462118e-15    2    1   17    4
 -2.065723264170016e-15    2    1   17    5
 0.2128512303458857    2    1   17    7
 3.469446951953614e-15    2    1   17   10
 -0.08484802999505882    2    1   17   11
 -0.1962297934346511    2    1   17   14
 5.495603971894525e-15    2    1   17   17
 0.187591336308026    2    1   18    1
 3.919465663485e-13    2    1   18    2
 -0.2706939519545487    2    1   18    3
 1.175448627321884e-14    2    1   18    4
 1.138653069266867e-15    2    1   18    5
 -0.1377549013353665    2    1   18    7
 7.494005416219807e-15    2    1   18   10
 0.1128275575050866    2    1   18   11
 -0.04237319659045597    2    1   18   14
 -3.33066907387547e-15    2    1   18   18
 2.325663803447255    2    2    1    1
 7.447099686051784e-12    2    2    2    1
 2.327583560973808    2    2    2    2
 -0.205515945320447    2    2    3    1
 -1.338508297255014e-12    2    2    3    2
 0.8949384362550101    2    2    3    3
 3.327194205912654e-13    2    2    4    1
 0.1820781350849559    2    2    4    2
 -6.049063160096235e-13    2    2    4    3
 0.6712933306173721    2    2    4    4
 -1.005419459192125e-15    2    2    5    3
 0.7104853995072422    2    2    5    5
 0.7104853995072413    2    2    6    6
 0.07323075967898876    2    2    7    1
 3.813381901918156e-13    2    2    7    2
 0.1093867277416866    2    2    7    3
 1.030450898220625e-12    2    2    7    4
 0.6993791282120003    2    2    7    7
 -3.916391950326004e-13    2    2    8    5
 8.703141289242988e-13    2    2    8    6
 0.613089862867942    2    2    8    8
 8.69720961915732e-13    2    2    9    5
 3.913952495437911e-13    2    2    9    6
 0.6130898628679422    2    2    9    9
 2.147836419895237e-13    2    2   10    1
 0.1064190316782327    2    2   10    2
 -4.313790806769607e-13    2    2   10    3
 0.1400230670631085    2    2   10    4
 1.04566529046668e-13    2    2   10    7
 0.397366008477678    2    2   10   10
 0.01891445139350799    2    2   11    1
 1.644231625852477e-13    2    2   11    2
 -0.1076323230812474    2    2   11    3
 -5.28500854191094e-14    2    2   11    4
 1.345122936833661e-15    2    2   11    5
 -0.1376134746317414    2    2   11    7
 -2.149946887186616e-13    2    2   11   10
 0.4599203332754866    2    2   11   11
 1.208782061184896e-15    2    2   12    4
 -0.1211634377187417    2    2   12    5
 0.2070418461020213    2    2   12    6
 -1.364462823042012e-15    2    2   12    7
 5.759039621057449e-13    2    2   12    8
 -6.104752120483781e-14    2    2   12    9
 0.5834619529343253    2    2   12   12
 0.2070418461020214    2    2   13    5
 0.1211634377187414    2    2   13    6
 1.462379056177969e-15    2    2   13    7
 6.115941086903831e-14    2    2   13    8
 5.710015793525258e-13    2    2   13    9
 0.5834619529343248    2    2   13   13
 -0.1585812421190735    2    2   14    1
 -9.464545033116556e-13    2    2   14    2
 0.1173172932894694    2    2   14    3
 -7.390387130393195e-13    2    2   14    4
 1.301653845735995e-15    2    2   14    5
 -0.1799446265464655    2    2   14    7
 -4.323000291073242e-13    2    2   14   10
 -0.009269061831679026    2    2   14   11
 0.5763628454633032    2    2   14   14
 3.981511707785643e-13    2    2   15    5
 -7.76624580346285e-13    2    2   15    6
 -0.2757533600363949    2    2   15    8
 0.01411218057842243    2    2   15    9
 -9.832428806284517e-13    2    2   15   12
 -5.460272533598653e-14    2    2   15   13
 0.6639978162696903    2    2   15   15
 -7.80866690752724e-13    2    2   16    5
 -3.999162112577892e-13    2    2   16    6
 -0.01411218057842232    2    2   16    8
 -0.2757533600363948    2    2   16    9
 5.466547353671913e-14    2    2   16   12
 -9.823912516804256e-13    2    2   16   13
 0.6639978162696895    2    2   16   16
 4.890805506896009e-14    2    2   17    1
 0.05999997899374165    2    2   17    2
 2.989178186658253e-13    2    2   17    3
 0.1624265938364791    2    2   17    4
 8.944216894901658e-13    2    2   17    7
 0.01119231960999562    2    2   17   10
 -3.543762505664461e-13    2    2   17   11
 -8.161162717845727e-13    2    2   17   14
 0.6693589316210501    2    2   17   17
 4.292593095756893e-13    2    2   18    1
 0.1701497221707657    2    2   18    2
 -1.124206860957967e-12    2    2   18    3
 0.07944082834487974    2    2   18    4
 -5.634442565294329e-13    2    2   18    7
 0.1554237486602915    2    2   18   10
 4.678306353422812e-13    2    2   18   11
 -1.773000149474235e-13    2    2   18   14
 -0.2247444507187075    2    2   18   17
 0.8740219243139697    2    2   18   18
 -0.2051320762539987    3    1    1    1
 4.586393215894307e-13    3    1    2    1
 -0.205515945320447    3    1    2    2
 0.04082268439389766    3    1    3    1
 1.004594627970756e-15    3    1    3    2
 0.009435971606665722    3    1    3    3
 1.04666718644768e-13    3    1    4    1
 -0.02493361076453708    3    1    4    2
 -1.932157369212775e-14    3    1    4    3
 -0.01424763679706488    3    1    4    4
 -0.0002967087689509516    3    1    5    5
 -0.0002967087689509481    3    1    6    6
 -0.00112085334745532    3    1    7    1
 0.00942926582774784    3    1    7    3
 3.77335830767031e-14    3    1    7    4
 -0.009519600228434861    3    1    7    7
 -8.971459998643539e-15    3    1    8    5
 1.99460637673258e-14    3    1    8    6
 -0.004138666126532462    3    1    8    8
 1.995333152177148e-14    3    1    9    5
 8.978196875189526e-15    3    1    9    6
 -0.004138666126532472    3    1    9    9
 7.329860320151582e-14    3    1   10    1
 -0.01761158298140891    3    1   10    2
 -1.049881159792413e-14    3    1   10    3
 -0.003867713705187905    3    1   10    4
 6.443684561624474e-15    3    1   10    7
 -0.003237196882017621    3    1   10   10
 -0.009856842101400335    3    1   11    1
 -1.158361601083513e-15    3    1   11    2
 -0.002655939748214424    3    1   11    3
 -2.880725172293985e-15    3    1   11    4
 -0.0004901107228419931    3    1   11    7
 -7.107162081076979e-15    3    1   11   10
 0.001032391342369302    3    1   11   11
 0.002052303250937644    3    1   12    5
 -0.003506937916549256    3    1   12    6
 1.545003172978305e-14    3    1   12    8
 -1.665863085496821e-15    3    1   12    9
 -0.004129492732708991    3    1   12   12
 -0.003506937916549258    3    1   13    5
 -0.002052303250937643    3    1   13    6
 1.664060599385064e-15    3    1   13    8
 1.554453180757642e-14    3    1   13    9
 -0.004129492732708985    3    1   13   13
 0.02038930073654672    3    1   14    1
 -1.717849044420285e-15    3    1   14    2
 -0.003746573063496482    3    1   14    3
 -3.180169996224867e-14    3    1   14    4
 0.01189017215482988    3    1   14    7
 -1.590828163644531e-14    3    1   14   10
 -0.004741517817835672    3    1   14   11
 -0.01083048147162448    3    1   14   14
 9.562579940335081e-15    3    1   15    5
 -1.864434326928759e-14    3    1   15    6
 0.005291808671150464    3    1   15    8
 -0.0002708179495759569    3    1   15    9
 -2.611140888202932e-14    3    1   15   12
 -1.455406103048466e-15    3    1   15   13
 -0.007882088981202526    3    1   15   15
 -1.858516324778486e-14    3    1   16    5
 -9.537984009370948e-15    3    1   16    6
 0.0002708179495759559    3    1   16    8
 0.005291808671150466    3    1   16    9
 1.456576490823334e-15    3    1   16   12
 -2.616591839033067e-14    3    1   16   13
 -0.007882088981202509    3    1   16   16
 -1.265630192336976e-14    3    1   17    1
 0.003449442013262108    3    1   17    2
 -0.01227376921878895    3    1   17    4
 3.094605734860201e-14    3    1   17    7
 -0.004476046891490608    3    1   17   10
 -1.071712163458471e-14    3    1   17   11
 -3.211797147684159e-14    3    1   17   14
 -0.01295571411896628    3    1   17   17
 1.685142436290595e-13    3    1   18    1
 -0.04119095197971454    3    1   18    2
 -1.819054076205445e-14    3    1   18    3
 0.0005832030758028623    3    1   18    4
 -1.052955465874472e-14    3    1   18    7
 -8.581370272504191e-05    3    1   18   10
 9.0951551845464e-15    3    1   18   11
 -1.521027227779914e-15    3    1   18   14
 0.002689068056872162    3    1   18   17
 -0.001791739939921752    3    1   18   18
 4.890446771502188e-13    3    2    1    1
 -0.2201729359331279    3    2    2    1
 -1.338469726762728e-12    3    2    2    2
 1.010425020444504e-15    3    2    3    1
 0.04015570998721214    3    2    3    2
 1.972947659567993e-14    3    2    3    3
 -0.02547429576490408    3    2    4    1
 -1.043749217236696e-13    3    2    4    2
 0.008991121842511975    3    2    4    3
 -2.755342950870078e-14    3    2    4    4
 -0.002240817788481241    3    2    7    2
 1.999310141271096e-14    3    2    7    3
 -0.01828993057784187    3    2    7    4
 -2.160511353155314e-14    3    2    7    7
 0.004315022290332556    3    2    8    5
 -0.009591422470781071    3    2    8    6
 -8.628015667102706e-15    3    2    8    8
 -0.00959142247078109    3    2    9    5
 -0.004315022290332561    3    2    9    6
 -8.604228440844963e-15    3    2    9    9
 -0.01768044977560848    3    2   10    1
 -7.313041062203662e-14    3    2   10    2
 0.004962290045404005    3    2   10    3
 -7.727278289893641e-15    3    2   10    4
 -0.003212554309114352    3    2   10    7
 -5.751475684601104e-15    3    2   10   10
 -1.149730652988347e-15    3    2   11    1
 -0.009220995614254119    3    2   11    2
 -5.60288683565315e-15    3    2   11    3
 0.0014571285868116    3    2   11    4
 0.003487844645655653    3    2   11   10
 1.956388610141468e-15    3    2   11   11
 4.140410972110426e-15    3    2   12    5
 -7.097564668388995e-15    3    2   12    6
 -0.007398197389880979    3    2   12    8
 0.0007925334905679585    3    2   12    9
 -8.132908180531859e-15    3    2   12   12
 -6.938084140409653e-15    3    2   13    5
 -4.057316616468305e-15    3    2   13    6
 -0.0007925334905679567    3    2   13    8
 -0.007398197389880986    3    2   13    9
 -7.710276644576353e-15    3    2   13   13
 -1.711645216295916e-15    3    2   14    1
 0.02093452448403283    3    2   14    2
 -7.559525108755821e-15    3    2   14    3
 0.01488301464963742    3    2   14    4
 2.518926907335572e-14    3    2   14    7
 0.007526889822364657    3    2   14   10
 -9.913510984338458e-15    3    2   14   11
 -2.179137946478615e-14    3    2   14   14
 -0.004608759304370113    3    2   15    5
 0.008986242267384916    3    2   15    6
 1.10856259123261e-14    3    2   15    8
 0.01254575178407529    3    2   15   12
 0.0006980875162523806    3    2   15   13
 -1.672777432650615e-14    3    2   15   15
 0.008986242267384915    3    2   16    5
 0.004608759304370102    3    2   16    6
 1.121748093718677e-14    3    2   16    9
 -0.000698087516252385    3    2   16   12
 0.01254575178407527    3    2   16   13
 -1.720412007299998e-14    3    2   16   16
 0.002370227425532816    3    2   17    1
 1.151644629811786e-14    3    2   17    2
 0.0002940273259221909    3    2   17    3
 -2.501763986945127e-14    3    2   17    4
 -0.01534565158458392    3    2   17    7
 -1.01199430779797e-14    3    2   17   10
 0.005284141563105793    3    2   17   11
 0.01552282936199615    3    2   17   14
 -2.690209166544832e-14    3    2   17   17
 -0.04020440618754671    3    2   18    1
 -1.691180188782577e-13    3    2   18    2
 0.008805343963777894    3    2   18    3
 0.004995083247121218    3    2   18    7
 -1.457167719820518e-15    3    2   18   10
 -0.004356535717661154    3    2   18   11
 0.0008651756857458524    3    2   18   14
 6.130512764102036e-15    3    2   18   17
 -2.477185123694881e-15    3    2   18   18
 0.8951672692594456    3    3    1    1
 -1.547590181005809e-15    3    3    2    1
 0.8949384362550101    3    3    2    2
 0.009435971606665717    3    3    3    1
 1.97311784966292e-14    3    3    3    2
 0.8791116954172197    3    3    3    3
 -5.368231900670928e-14    3    3    4    1
 0.02482838719175832    3    3    4    2
 -8.580375993050282e-15    3    3    4    3
 0.5332084671757111    3    3    4    4
 -1.350548740608943e-15    3    3    5    3
 0.6530075382670545    3    3    5    5
 0.6530075382670535    3    3    6    6
 0.03515888195346754    3    3    7    1
 7.410825425546719e-14    3    3    7    2
 0.1417640171043418    3    3    7    3
 -3.579601892678141e-15    3    3    7    4
 0.5747993865966392    3    3    7    7
 0.536475519302821    3    3    8    8
 -1.016547956922409e-15    3    3    9    5
 0.536475519302821    3    3    9    9
 -1.430283571701024e-14    3    3   10    1
 0.006469641735370651    3    3   10    2
 0.1005203070801519    3    3   10    4
 3.345414223421272e-15    3    3   10    7
 0.3595153745182117    3    3   10   10
 -0.0168268456463556    3    3   11    1
 -3.526259145791855e-14    3    3   11    2
 -0.0884497874259068    3    3   11    3
 4.836409051023338e-15    3    3   11    4
 1.094810377426264e-15    3    3   11    5
 -0.1161074605604834    3    3   11    7
 4.6074255521944e-15    3    3   11   10
 0.446996552771889    3    3   11   11
 -0.07958440971429254    3    3   12    5
 0.1359923704577923    3    3   12    6
 -1.013478319083954e-15    3    3   12    7
 -2.873081546977962e-15    3    3   12    8
 0.5063772410342045    3    3   12   12
 0.1359923704577925    3    3   13    5
 0.07958440971429233    3    3   13    6
 -6.092348847630547e-15    3    3   13    9
 0.506377241034204    3    3   13   13
 -0.02313665979309852    3    3   14    1
 -4.76231738506111e-14    3    3   14    2
 0.07236819012649601    3    3   14    3
 6.348925291749241e-15    3    3   14    4
 -0.07458617123253923    3    3   14    7
 -2.445960101127298e-15    3    3   14   10
 -0.05093578842152757    3    3   14   11
 0.474061238511296    3    3   14   14
 -0.1842640773939416    3    3   15    8
 0.009430049860340784    3    3   15    9
 0.536624551713433    3    3   15   15
 -3.819861094100929e-15    3    3   16    5
 -1.551710149261254e-15    3    3   16    6
 -0.009430049860340701    3    3   16    8
 -0.1842640773939416    3    3   16    9
 0.5366245517134323    3    3   16   16
 -7.393285744901334e-14    3    3   17    1
 0.03596313287684117    3    3   17    2
 -1.555830117516699e-15    3    3   17    3
 0.05440229144245497    3    3   17    4
 3.368832990346959e-15    3    3   17    7
 -0.02042119282976479    3    3   17   10
 -1.02695629777827e-15    3    3   17   11
 1.455432996344541e-15    3    3   17   14
 0.5271122070198691    3    3   17   17
 4.853988711623833e-14    3    3   18    1
 -0.02306034885522793    3    3   18    2
 0.07201552325278618    3    3   18    4
 6.291842047367879e-15    3    3   18    7
 0.129939031341382    3    3   18   10
 -1.332267629550188e-15    3    3   18   11
 1.810183947181798e-15    3    3   18   14
 -0.1529599346688706    3    3   18   17
 0.7443228733540028    3    3   18   18
 -1.094830245546344e-12    4    1    1    1
 0.1721160452972364    4    1    2    1
 3.326645328562833e-13    4    1    2    2
 1.046674595868387e-13    4    1    3    1
 -0.02547429576490409    4    1    3    2
 -5.365521988162777e-14    4    1    3    3
 0.02761069937450286    4    1    4    1
 -2.417620919811011e-15    4    1    4    2
 -0.00359943567162711    4    1    4    3
 -4.589698846674262e-15    4    1    4    4
 -1.837771471460692e-14    4    1    5    5
 -1.837494999906708e-14    4    1    6    6
 -6.336016170819907e-14    4    1    7    1
 0.01501228458292272    4    1    7    2
 -1.735577962813997e-14    4    1    7    3
 -0.004638659098774906    4    1    7    4
 -7.965308100599255e-15    4    1    7    7
 -0.0003718501511646961    4    1    8    5
 0.0008265477338633932    4    1    8    6
 -9.630607485669679e-15    4    1    8    8
 0.0008265477338634007    4    1    9    5
 0.0003718501511646991    4    1    9    6
 -9.639207834699626e-15    4    1    9    9
 0.01513248031002566    4    1   10    1
 -0.004189073575550373    4    1   10    3
 -8.315403758358403e-15    4    1   10    4
 0.0003242388790506271    4    1   10    7
 -3.997236569519558e-15    4    1   10   10
 4.453485572602166e-15    4    1   11    1
 -0.0007930180142838121    4    1   11    2
 1.522071534700584e-14    4    1   11    3
 -0.0003433232561337728    4    1   11    4
 1.193806880607495e-14    4    1   11    7
 0.003106245915138693    4    1   11   10
 -1.011181156168606e-14    4    1   11   11
 7.419773142788334e-15    4    1   12    5
 -1.266676193323541e-14    4    1   12    6
 0.003842225281401317    4    1   12    8
 -0.000411599211719118    4    1   12    9
 -1.734223197142335e-14    4    1   12   12
 -1.274341417979719e-14    4    1   13    5
 -7.458009904093288e-15    4    1   13    6
 0.0004115992117191177    4    1   13    8
 0.00384222528140132    4    1   13    9
 -1.74888857736033e-14    4    1   13   13
 1.048285904526366e-13    4    1   14    1
 -0.0247969649077743    4    1   14    2
 -1.117213756945436e-14    4    1   14    3
 -0.001211494194917691    4    1   14    4
 -0.0005601980117526714    4    1   14   10
 3.471832196733082e-15    4    1   14   11
 -6.709259883774799e-15    4    1   14   14
 0.002132758523382731    4    1   15    5
 -0.004158491152005762    4    1   15    6
 1.460597970322837e-14    4    1   15    8
 -0.00442237196632263    4    1   15   12
 -0.0002460755413504195    4    1   15   13
 -2.098484419506149e-14    4    1   15   15
 -0.004158491152005765    4    1   16    5
 -0.002132758523382729    4    1   16    6
 1.454327110128606e-14    4    1   16    9
 0.0002460755413504214    4    1   16   12
 -0.004422371966322622    4    1   16   13
 -2.081494698824571e-14    4    1   16   16
 0.01461259133671956    4    1   17    1
 -1.979065376205361e-15    4    1   17    2
 0.003843892712739598    4    1   17    3
 1.567837656576976e-15    4    1   17    4
 0.001401861013055333    4    1   17    7
 3.080001531596821e-15    4    1   17   10
 -0.00299866277343228    4    1   17   11
 0.002052762085393363    4    1   17   14
 -1.241021174713808e-14    4    1   17   17
 0.01705236694531065    4    1   18    1
 2.269282580857207e-15    4    1   18    2
 -0.01393761189879568    4    1   18    3
 -1.285156334650261e-14    4    1   18    4
 -0.00376773421390608    4    1   18    7
 -1.306420249758133e-14    4    1   18   10
 0.005704478892056348    4    1   18   11
 -0.003197688381981368    4    1   18   14
 1.838286467492622e-14    4    1   18   17
 -5.348499421131692e-14    4    1   18   18
 0.1818428711914819    4    2    1    1
 3.541480988539713e-13    4    2    2    1
 0.1820781350849558    4    2    2    2
 -0.0249336107645371    4    2    3    1
 -1.043775119504223e-13    4    2    3    2
 0.02482838719175831    4    2    3    3
 -2.414711361637192e-15    4    2    4    1
 0.02800956407788967    4    2    4    2
 -8.077004641287786e-15    4    2    4    3
 0.002629738401855437    4    2    4    4
 0.008556520276556945    4    2    5    5
 0.008556520276556932    4    2    6    6
 0.01576672699367795    4    2    7    1
 6.442159224693059e-14    4    2    7    2
 0.007811264370498706    4    2    7    3
 -8.657937105964464e-15    4    2    7    4
 0.003631942062670496    4    2    7    7
 2.016724355161168e-15    4    2    8    6
 0.004546643362255272    4    2    8    8
 2.000576624933831e-15    4    2    9    5
 0.004546643362255287    4    2    9    9
 0.01521025198856672    4    2   10    2
 -8.68506418313323e-15    4    2   10    3
 0.003951668041587668    4    2   10    4
 0.001789270565416476    4    2   10   10
 -0.001242185007085767    4    2   11    1
 -4.056356081106119e-15    4    2   11    2
 -0.007056368910108382    4    2   11    3
 -0.005575909037278494    4    2   11    7
 6.30225038822374e-15    4    2   11   10
 0.00466188582112482    4    2   11   11
 -0.003473615442123513    4    2   12    5
 0.005935649956178957    4    2   12    6
 7.895617829589197e-15    4    2   12    8
 0.008088003287851921    4    2   12   12
 0.005935649956178962    4    2   13    5
 0.003473615442123509    4    2   13    6
 7.768308565858639e-15    4    2   13    9
 0.008088003287851916    4    2   13   13
 -0.02511852656826214    4    2   14    1
 -1.022477035087259e-13    4    2   14    2
 0.005224817102497285    4    2   14    3
 -2.961471129089843e-15    4    2   14    4
 0.0002113878419792428    4    2   14    7
 -1.406860739017191e-15    4    2   14   10
 -0.001525515031472135    4    2   14   11
 0.00330781305814029    4    2   14   14
 4.48723655329758e-15    4    2   15    5
 -8.756365140232051e-15    4    2   15    6
 -0.006949992592053715    4    2   15    8
 0.0003556785326743271    4    2   15    9
 -9.364272374965668e-15    4    2   15   12
 0.009977379816103259    4    2   15   15
 -8.870562704516027e-15    4    2   16    5
 -4.539080157746345e-15    4    2   16    6
 -0.0003556785326743259    4    2   16    8
 -0.006949992592053721    4    2   16    9
 -9.34940059399425e-15    4    2   16   13
 0.009977379816103235    4    2   16   16
 -1.906099417030033e-15    4    2   17    1
 0.01531186755922533    4    2   17    2
 7.521337475361808e-15    4    2   17    3
 -0.0005291160599718661    4    2   17    4
 3.353762580149411e-15    4    2   17    7
 -0.00118383408180832    4    2   17   10
 -6.279265302167047e-15    4    2   17   11
 3.416104205067327e-15    4    2   17   14
 0.005741069830962693    4    2   17   17
 2.171143226005956e-15    4    2   18    1
 0.01648328929134023    4    2   18    2
 -2.833237455952299e-14    4    2   18    3
 0.006153336629021977    4    2   18    4
 -7.376694741156875e-15    4    2   18    7
 0.006512534697804591    4    2   18   10
 1.161831048035467e-14    4    2   18   11
 -6.313905561577959e-15    4    2   18   14
 -0.008929946783589292    4    2   18   17
 0.02452811671681089    4    2   18   18
 5.921626002860971e-13    4    3    1    1
 -0.1442774307107847    4    3    2    1
 -6.048052954722022e-13    4    3    2    2
 -1.933777573834283e-14    4    3    3    1
 0.008991121842511966    4    3    3    2
 -8.466534764939304e-15    4    3    3    3
 -0.003599435671627109    4    3    4    1
 -8.047233127257691e-15    4    3    4    2
 0.04062208665243577    4    3    4    3
 7.709653228327173e-15    4    3    4    4
 -2.863161097099719e-15    4    3    5    5
 -2.837031824742819e-15    4    3    6    6
 -4.407390251370824e-15    4    3    7    1
 0.001552630313706666    4    3    7    2
 -1.453156171782322e-15    4    3    7    3
 -0.07701760568350245    4    3    7    4
 -9.895730068709696e-15    4    3    7    7
 0.02869524766775204    4    3    8    5
 -0.06378373615861285    4    3    8    6
 -2.094529519443277e-15    4    3    8    8
 -0.06378373615861292    4    3    9    5
 -0.02869524766775205    4    3    9    6
 -1.998401444325282e-15    4    3    9    9
 -0.002783261683431718    4    3   10    1
 -5.72949348555396e-15    4    3   10    2
 0.02481243140594126    4    3   10    3