 &FCI NORB=  24,NELEC=10,MS2=0,
  ORBSYM=1,1,1,1,1,1,1,1,1,1,1,1,1,1,1,1,1,1,1,1,1,1,1,1,
  ISYM=1,
 &END
 4.73983505696675    1    1    1    1
 -0.4310063940773898    1    1    2    1
 1.045286006227179    1    1    2    2
 0.8736188656128073    1    1    3    3
 0.1404914525065683    1    1    4    1
 -0.090689954150838    1    1    4    2
 0.9828055229008941    1    1    4    4
 1.038669605688768    1    1    5    5
 -0.1454189525249757    1    1    6    1
 0.208924467929076    1    1    6    2
 4.934420927416028e-15    1    1    6    3
 0.1077292887728264    1    1    6    4
 0.4090033945664391    1    1    6    6
 5.645210319170368e-15    1    1    7    1
 -6.825703197099742e-15    1    1    7    2
 0.2437434219410936    1    1    7    3
 -1.767683222020366e-15    1    1    7    6
 0.398322987819986    1    1    7    7
 -1.489693784995083e-15    1    1    8    2
 0.16681128404857    1    1    8    3
 -4.131243958038766e-15    1    1    8    4
 0.1601036237160065    1    1    8    7
 0.5596933684078688    1    1    8    8
 0.1310601044607551    1    1    9    1
 -0.1724429983112908    1    1    9    2
 -3.52734334796434e-15    1    1    9    3
 -0.1683071469157908    1    1    9    4
 -0.1714826179224831    1    1    9    6
 0.588134531677915    1    1    9    9
 -0.09291113830249006    1    1   10    1
 0.02824825902279891    1    1   10    2
 -8.892192537857113e-15    1    1   10    3
 -0.4027721104052494    1    1   10    4
 1.007969530345674e-15    1    1   10    5
 -0.0888638353442345    1    1   10    6
 -4.626941191299139e-15    1    1   10    7
 0.1330103712394424    1    1   10    9
 0.8279655789514702    1    1   10   10
 2.48829968808074e-15    1    1   11    3
 -0.5112395601798477    1    1   11    5
 2.058864139943016e-15    1    1   11    7
 1.1527347683975e-15    1    1   11    8
 0.997103440025786    1    1   11   11
 8.373784657214958e-15    1    1   12    1
 -6.01656311577381e-15    1    1   12    2
 -0.3355066682211262    1    1   12    3
 1.449301833059136e-14    1    1   12    4
 -3.991114859375178e-15    1    1   12    5
 -3.881769038149852e-15    1    1   12    6
 -0.2197289841603927    1    1   12    7
 -0.1216703213474521    1    1   12    8
 -1.273720712235971e-15    1    1   12    9
 -4.791306240647941e-15    1    1   12   10
 1.7228579743976e-15    1    1   12   11
 0.7759641363061753    1    1   12   12
 -0.1613634018749766    1    1   13    1
 0.1517320916453983    1    1   13    2
 -3.240463453124676e-15    1    1   13    3
 -0.09400738627627547    1    1   13    4
 0.06597334436808708    1    1   13    6
 -5.37330596683816e-15    1    1   13    7
 -0.005821138534231676    1    1   13    9
 0.05740951846328536    1    1   13   10
 0.573576509894447    1    1   13   13
 0.5157948778065538    1    1   14   14
 -0.02218930783736089    1    1   15    5
 0.03285590259064695    1    1   15   11
 0.5132309031344752    1    1   15   15
 0.3118243883108846    1    1   16    1
 -0.2884144744788866    1    1   16    2
 6.498924662312611e-15    1    1   16    3
 0.1433901321583526    1    1   16    4
 -0.1267572434741973    1    1   16    6
 1.15351928313065e-14    1    1   16    7
 2.102579720573983e-15    1    1   16    8
 0.02687042136790516    1    1   16    9
 -0.112656678169062    1    1   16   10
 -0.1098427183957784    1    1   16   13
 0.778739115400425    1    1   16   16
 -2.348327695494978e-15    1    1   17    1
 2.089474426814064e-15    1    1   17    2
 0.006527096869433667    1    1   17    3
 1.399054483375295e-15    1    1   17    6
 0.006660527402066664    1    1   17    7
 0.01153871453445105    1    1   17    8
 -1.595945597898663e-15    1    1   17    9
 -1.096345236817342e-15    1    1   17   10
 -0.01081332761034805    1    1   17   12
 -1.553444872737231e-15    1    1   17   16
 0.4639121635977438    1    1   17   17
 -3.342452996237671e-15    1    1   18    1
 3.28426522089309e-15    1    1   18    2
 0.1915567111250486    1    1   18    3
 4.090694796787808e-15    1    1   18    6
 0.1426534461298517    1    1   18    7
 0.238712670078314    1    1   18    8
 -5.504277589274409e-15    1    1   18    9
 -6.303985111699717e-15    1    1   18   10
 2.175116488408287e-15    1    1   18   11
 -0.2810565861146566    1    1   18   12
 -2.421673972463623e-15    1    1   18   13
 4.974536407797991e-15    1    1   18   16
 0.01766697605157556    1    1   18   17
 0.8104395936359632    1    1   18   18
 -0.2109427276418083    1    1   19    1
 0.1896279120968389    1    1   19    2
 0.1210111619042508    1    1   19    4
 0.148620829647527    1    1   19    6
 -3.324163860840557e-15    1    1   19    7
 -4.529362995775443e-15    1    1   19    8
 -0.2724831175920206    1    1   19    9
 -0.1686776416649511    1    1   19   10
 2.888314587501384e-15    1    1   19   12
 0.0534532699659396    1    1   19   13
 -0.06955827744299962    1    1   19   16
 1.873501354054952e-15    1    1   19   17
 1.117161918529064e-15    1    1   19   18
 0.8203134823121968    1    1   19   19
 0.004995195292240798    1    1   20    5
 -0.0002616252424902991    1    1   20   11
 1.34180860866806e-15    1    1   20   14
 0.1515360980731814    1    1   20   15
 0.8802240101624176    1    1   20   20
 0.1488097713747833    1    1   21   14
 -1.509209424099822e-15    1    1   21   15
 0.8853289841870191    1    1   21   21
 -0.009727214471786608    1    1   22    1
 0.008116569434162583    1    1   22    2
 -0.01684132152793848    1    1   22    4
 -0.0003043099887140291    1    1   22    6
 1.07032438467769e-15    1    1   22    8
 0.03485747847808962    1    1   22    9
 -0.01492458503863942    1    1   22   10
 0.1543043782121283    1    1   22   13
 0.06352311718767094    1    1   22   16
 0.007093496599974578    1    1   22   19
 0.8727580049910912    1    1   22   22
 -0.04979834241250214    1    1   23    1
 0.05273142948231433    1    1   23    2
 2.066923021626366e-15    1    1   23    3
 0.09916952737301089    1    1   23    4
 0.04258001901147613    1    1   23    6
 -1.690488027339399e-15    1    1   23    8
 -0.0550794375519829    1    1   23    9
 -0.1878867862577791    1    1   23   10
 1.438085761584773e-15    1    1   23   12
 0.02137524484611668    1    1   23   13
 -0.1004823975626029    1    1   23   16
 1.935951399190117e-15    1    1   23   18
 -0.04536210143105168    1    1   23   19
 0.00885209582889058    1    1   23   22
 0.8911474346371394    1    1   23   23
 0.1277527351285887    1    1   24    3
 -1.635003981162453e-15    1    1   24    4
 1.09466472344999e-15    1    1   24    6
 0.05426849165427494    1    1   24    7
 -0.004413965979882344    1    1   24    8
 -3.48245737802344e-15    1    1   24   10
 1.946997763093282e-15    1    1   24   11
 -0.2293567193248449    1    1   24   12
 -2.050443148604586e-15    1    1   24   13
 4.99188364255776e-15    1    1   24   16
 -0.01760806920219837    1    1   24   17
 -0.03361158815287851    1    1   24   18
 1.663599813461758e-15    1    1   24   19
 1.859623566247137e-15    1    1   24   23
 0.9227656906976994    1    1   24   24
 -0.4310063940773896    2    1    1    1
 0.06373485918841881    2    1    2    1
 -0.01415335071127122    2    1    2    2
 -0.006356736787065224    2    1    3    3
 -0.01706998544677028    2    1    4    1
 0.007867908077187144    2    1    4    2
 -0.01260525227235882    2    1    4    4
 -0.01130388044878525    2    1    5    5
 0.02290659303105914    2    1    6    1
 -0.004546201851055032    2    1    6    2
 -0.0005646833232710958    2    1    6    4
 -0.001901412127146909    2    1    6    6
 -0.004126311767611589    2    1    7    3
 -0.002086751656303532    2    1    7    7
 -0.004988669606898626    2    1    8    3
 -0.002407162764902841    2    1    8    7
 -0.001989377473283133    2    1    8    8
 -0.02146913288375825    2    1    9    1
 0.003901381063994366    2    1    9    2
 0.002963796217018923    2    1    9    4
 0.002343666554700647    2    1    9    6
 -0.002574423665925005    2    1    9    9
 0.009745346300863583    2    1   10    1
 -0.004198343164568142    2    1   10    2
 0.01245824921521352    2    1   10    4
 0.001152046340630607    2    1   10    6
 -0.00425386305466321    2    1   10    9
 -0.01302581190367319    2    1   10   10
 0.01422287618494937    2    1   11    5
 -0.01804418751579064    2    1   11   11
 -1.082864389824435e-15    2    1   12    1
 0.008115930900959877    2    1   12    3
 0.004701415770920918    2    1   12    7
 0.004655547939620338    2    1   12    8
 -0.0105587086104112    2    1   12   12
 0.02326746524113014    2    1   13    1
 -0.006026690128168271    2    1   13    2
 0.002870438358943397    2    1   13    4
 -0.001692178674394957    2    1   13    6
 0.0008457473501064179    2    1   13    9
 -0.00417175016709855    2    1   13   10
 -0.002453936013045515    2    1   13   13
 0.0009680844299843091    2    1   14   14
 0.001868865009194418    2    1   15    5
 -0.0008925589918853527    2    1   15   11
 0.0004958490323509031    2    1   15   15
 -0.04502122913603621    2    1   16    1
 0.01103907200943028    2    1   16    2
 -0.007827580413440846    2    1   16    4
 0.002794384742971552    2    1   16    6
 -0.001694302087324051    2    1   16    9
 0.006912274100837101    2    1   16   10
 0.005211541266019431    2    1   16   13
 -0.009496230187026566    2    1   16   16
 -0.0001098364250444772    2    1   17    3
 -0.0002538623604075415    2    1   17    7
 -0.0006562957088299918    2    1   17    8
 -0.0001786710237083343    2    1   17   12
 0.0008103870748650676    2    1   17   17
 -0.009853944285199503    2    1   18    3
 -0.005496230608352843    2    1   18    7
 -0.005206916965702514    2    1   18    8
 0.01135026441986361    2    1   18   12
 -0.0005474938480689408    2    1   18   17
 -0.01067969231336724    2    1   18   18
 0.03475567351886678    2    1   19    1
 -0.007998366256450869    2    1   19    2
 -0.004617788417049304    2    1   19    4
 -0.004593135306538006    2    1   19    6
 0.00585033530631617    2    1   19    9
 0.006145583496301294    2    1   19   10
 -0.001364302545175741    2    1   19   13
 0.003412753575942389    2    1   19   16
 -0.008936586272631037    2    1   19   19
 0.003231733345518606    2    1   20    5
 -0.002249572757885817    2    1   20   11
 -0.0008658880523080288    2    1   20   15
 -0.002035962308239826    2    1   20   20
 -0.0005553889553678483    2    1   21   14
 -0.002215472436835922    2    1   21   21
 0.001189624744745748    2    1   22    1
 -0.0008498050536652869    2    1   22    2
 -0.002668784460562312    2    1   22    4
 -0.001007531201580771    2    1   22    6
 0.001513158346284496    2    1   22    9
 0.001557423676014667    2    1   22   10
 -0.0006829910702457393    2    1   22   13
 -0.0003959869131573843    2    1   22   16
 -0.001060846813823458    2    1   22   19
 -0.002031724859400191    2    1   22   22
 0.009927258876307816    2    1   23    1
 -0.002092471054552038    2    1   23    2
 -0.003574909693336429    2    1   23    4
 -0.001823229156380703    2    1   23    6
 0.002157054177916385    2    1   23    9
 0.004771802995517573    2    1   23   10
 0.0001862508926417451    2    1   23   13
 0.0002943315367799557    2    1   23   16
 -0.003326373731225153    2    1   23   19
 -0.0005512823667896483    2    1   23   22
 -0.004564912197685996    2    1   23   23
 -0.002353655895838597    2    1   24    3
 -0.001258619983463261    2    1   24    7
 -0.0007913255697143531    2    1   24    8
 0.004010848034145193    2    1   24   12
 0.0003593993726872839    2    1   24   17
 -0.003722505477529207    2    1   24   18
 -0.004577795181056885    2    1   24   24
 1.04528600622718    2    2    1    1
 -0.01415335071127125    2    2    2    1
 0.7533896581444969    2    2    2    2
 0.6789117485258552    2    2    3    3
 0.01464266992565093    2    2    4    1
 0.01760766440264775    2    2    4    2
 0.6796509473573806    2    2    4    4
 0.7137134597163978    2    2    5    5
 -0.001812522323734961    2    2    6    1
 0.1085865232613793    2    2    6    2
 2.681015132122155e-15    2    2    6    3
 0.05855390424267799    2    2    6    4
 0.3664834588874299    2    2    6    6
 -3.037067125566395e-15    2    2    7    2
 0.1244926907665083    2    2    7    3
 -1.410763866838138e-15    2    2    7    6
 0.3453171964239512    2    2    7    7
 0.03309174472981874    2    2    8    3
 -1.419003803349028e-15    2    2    8    4
 0.1002191012701678    2    2    8    7
 0.5115073625770536    2    2    8    8
 -0.0007324659224362799    2    2    9    1
 -0.07103371429352325    2    2    9    2
 -0.0661506632191646    2    2    9    4
 -0.1125057142769548    2    2    9    6
 0.523103955162886    2    2    9    9
 -0.01309683672255291    2    2   10    1
 -0.00578629838354748    2    2   10    2
 -3.910066714851723e-15    2    2   10    3
 -0.1453314945595376    2    2   10    4
 -0.04848581491540482    2    2   10    6
 -1.703498453409225e-15    2    2   10    7
 0.02763122415213607    2    2   10    9
 0.5699110222911472    2    2   10   10
 1.026798768806062e-15    2    2   11    3
 -0.1885098304796677    2    2   11    5
 1.029105756693742e-15    2    2   11    7
 0.6170888464634224    2    2   11   11
 -1.633621623392534e-15    2    2   12    2
 -0.137927865596059    2    2   12    3
 5.092057147031842e-15    2    2   12    4
 -1.475628185754122e-15    2    2   12    5
 -2.100018292941486e-15    2    2   12    6
 -0.1108335530515028    2    2   12    7
 -0.02785520558987399    2    2   12    8
 -1.124534493301965e-15    2    2   12   10
 0.542300145118274    2    2   12   12
 -0.006664139148589406    2    2   13    1
 0.04692907206929876    2    2   13    2
 -1.089406342913435e-15    2    2   13    3
 -0.05906516717655847    2    2   13    4
 0.03521543758160209    2    2   13    6
 -2.783363817204787e-15    2    2   13    7
 0.004417430805168295    2    2   13    9
 -0.01658674998182834    2    2   13   10
 0.5200738676265685    2    2   13   13
 0.52671844514473    2    2   14   14
 0.01799101770295971    2    2   15    5
 0.02464558361436889    2    2   15   11
 0.5121778213673126    2    2   15   15
 0.01167731056017183    2    2   16    1
 -0.1000654461739707    2    2   16    2
 1.509751525186065e-15    2    2   16    3
 0.02865879982995075    2    2   16    4
 -0.07235146147949191    2    2   16    6
 6.094083571106523e-15    2    2   16    7
 -0.00784010504633911    2    2   16    9
 -0.01331237369833368    2    2   16   10
 -0.02062181304393603    2    2   16   13
 0.588125932757724    2    2   16   16
 0.0004112499809955069    2    2   17    3
 -0.001168559305355807    2    2   17    7
 -0.008075507893019758    2    2   17    8
 -0.01788101885211928    2    2   17   12
 0.4865331850750416    2    2   17   17
 1.183948772354171e-15    2    2   18    2
 0.005472042118853658    2    2   18    3
 1.20498229450039e-15    2    2   18    6
 0.03135611786239849    2    2   18    7
 0.1215012404788445    2    2   18    8
 -2.617697725249002e-15    2    2   18    9
 -1.901256929670581e-15    2    2   18   10
 -0.07325863063125698    2    2   18   12
 1.291935308733727e-15    2    2   18   16
 0.003935711672799019    2    2   18   17
 0.6062483245097151    2    2   18   18
 7.389986694963818e-07    2    2   19    1
 0.03609333058376094    2    2   19    2
 0.01117111442020866    2    2   19    4
 0.05186086324967212    2    2   19    6
 -1.056663437304373e-15    2    2   19    7
 -2.517083763642347e-15    2    2   19    8
 -0.1340659384702872    2    2   19    9
 -0.04399973935207747    2    2   19   10
 0.03130867936866862    2    2   19   13
 -0.01666324442111164    2    2   19   16
 0.6271077629131996    2    2   19   19
 0.0377532703315161    2    2   20    5
 -0.01961866053683712    2    2   20   11
 0.08903417087016624    2    2   20   15
 0.7046651664988858    2    2   20   20
 0.09067455947308894    2    2   21   14
 0.705297216997602    2    2   21   21
 -0.0007901790781684679    2    2   22    1
 -0.003638818830975444    2    2   22    2
 -0.03810530665022952    2    2   22    4
 -0.01104056044532199    2    2   22    6
 1.105018854197226e-15    2    2   22    8
 0.04404537599601026    2    2   22    9
 0.002770784501393615    2    2   22   10
 0.09427526322937729    2    2   22   13
 0.03595237220470072    2    2   22   16
 -0.003039523977472808    2    2   22   19
 0.7014272839865543    2    2   22   22
 0.003047634148985256    2    2   23    1
 0.01129280272350826    2    2   23    2
 0.01814860189912988    2    2   23    4
 0.007691122912387899    2    2   23    6
 -1.012211148232467e-15    2    2   23    8
 -0.03170654956251359    2    2   23    9
 -0.07490084250941266    2    2   23   10
 0.02253659813511275    2    2   23   13
 -0.06262730886315179    2    2   23   16
 -0.04965796653105078    2    2   23   19
 0.004235658263315702    2    2   23   22
 0.6888774409358601    2    2   23   23
 0.04897290404085759    2    2   24    3
 0.02042318316418669    2    2   24    7
 0.0004514193857069462    2    2   24    8
 -2.330167309105846e-15    2    2   24   10
 1.01649885431189e-15    2    2   24   11
 -0.1188963889177624    2    2   24   12
 -1.287164819174791e-15    2    2   24   13
 2.616071421990274e-15    2    2   24   16
 -0.008336532712371699    2    2   24   17
 -0.05353833585530095    2    2   24   18
 0.7009363108122024    2    2   24   24
 0.01920304576347644    3    1    3    1
 0.02315353893882786    3    1    3    2
 -0.003097266916990477    3    1    4    3
 0.004377238731634685    3    1    6    3
 0.01082069525828815    3    1    7    1
 0.009767665064673263    3    1    7    2
 -0.003877126879869485    3    1    7    4
 0.00484819219844652    3    1    7    6
 0.0103686458394749    3    1    8    1
 0.007333610746293216    3    1    8    2
 -0.008923758617149061    3    1    8    4
 0.001725797031259122    3    1    8    6
 0.0007867573013258088    3    1    9    3
 -0.001919236481282589    3    1    9    7
 -0.004445224177112276    3    1    9    8
 -0.001660105726405716    3    1   10    3
 0.0004299476453992589    3    1   10    7
 0.001936359742430047    3    1   10    8
 -0.02357257096616691    3    1   12    1
 -0.01316749645826265    3    1   12    2
 0.001372717452044801    3    1   12    4
 -0.006634804568405069    3    1   12    6
 0.004967852553505849    3    1   12    9
 -0.002694145362291222    3    1   12   10
 0.00941138833086237    3    1   13    3
 0.00422684639654541    3    1   13    7
 0.005564773124601408    3    1   13    8
 -0.006452363839186855    3    1   13   12
 0.007193606921699192    3    1   14    5
 -0.0007146530368120685    3    1   14   11
 0.006323896080249436    3    1   15   14
 -0.01032895472764981    3    1   16    3
 -0.005564321452112245    3    1   16    7
 -0.003670109862204702    3    1   16    8
 0.01406315850816633    3    1   16   12
 0.0002472692006100581    3    1   17    1
 0.0001543575387595518    3    1   17    2
 -0.001236388618645017    3    1   17    4
 0.0002524995791032286    3    1   17    6
 -0.003203423959663143    3    1   17    9
 0.002966460430895388    3    1   17   10
 -0.005470594413068202    3    1   17   13
 -0.0008497549152856739    3    1   17   16
 0.02341756961521244    3    1   18    1
 0.005868513750886683    3    1   18    2
 -0.0103763744904499    3    1   18    4
 0.0009427337278694769    3    1   18    6
 -0.0002421544343883371    3    1   18    9
 0.006933326263701033    3    1   18   10
 0.004216377966114536    3    1   18   13
 -0.008895505498819949    3    1   18   16
 -0.00146280865288557    3    1   19    3
 -0.0001136163824441211    3    1   19    7
 0.001065120032626573    3    1   19    8
 -0.002882159570597282    3    1   19   12
 0.001252922946721594    3    1   19   17
 0.007686890500576573    3    1   19   18
 -0.0008061895264997914    3    1   20   14
 0.01726027480152442    3    1   21    5
 -0.01196471648636594    3    1   21   11
 -0.001694015792571394    3    1   21   15
 -0.0008722665931723244    3    1   21   20
 0.01055303494224097    3    1   22    3
 0.005778166349710208    3    1   22    7
 0.005211560523516673    3    1   22    8
 -0.007671660510501501    3    1   22   12
 0.0004368513491899199    3    1   22   17
 0.004738828845451183    3    1   22   18
 0.01213113045451523    3    1   23    3
 0.0071158337643746    3    1   23    7
 0.008728005462415266    3    1   23    8
 -0.008752342028694042    3    1   23   12
 0.0003736483107323091    3    1   23   17
 0.008350372075146117    3    1   23   18
 0.01283842173256313    3    1   24    1
 0.005733852575552235    3    1   24    2
 0.01288098098419153    3    1   24    4
 0.005765348898092635    3    1   24    6
 -0.009291550074708922    3    1   24    9
 -0.009471892388508952    3    1   24   10
 0.002184703303887473    3    1   24   13
 -0.003182386601871349    3    1   24   16
 0.008589583365817584    3    1   24   19
 0.001921612498178341    3    1   24   22
 0.003795862352828029    3    1   24   23
 0.02315353893882786    3    2    3    1
 0.1538973609912845    3    2    3    2
 0.01769469846183314    3    2    4    3
 -0.0004999877082404974    3    2    6    3
 2.139320621694085e-15    3    2    6    6
 0.0126996623281989    3    2    7    1
 0.03977405227053503    3    2    7    2
 -0.02431222544263202    3    2    7    4
 0.0505786214986705    3    2    7    6
 -2.469704128704731e-15    3    2    7    7
 0.01186745913091036    3    2    8    1
 0.003659523729936603    3    2    8    2
 1.633458993066661e-15    3    2    8    3
 -0.07692243452621776    3    2    8    4
 0.01006898598745757    3    2    8    6
 -3.606490106555782e-15    3    2    8    8
 0.05974699751506481    3    2    9    3
 1.57213380768545e-15    3    2    9    4
 -0.01658972888063468    3    2    9    7
 -0.08205020155571179    3    2    9    8
 3.459363871749499e-15    3    2    9    9
 -1.060024464039078e-15    3    2   10    2
 -0.03545679347834296    3    2   10    3
 -1.372816790801146e-15    3    2   10    6
 -0.005838742204865864    3    2   10    7
 -0.0009265337406264658    3    2   10    8
 -0.02555361790923533    3    2   12    1
 -0.03691956759904991    3    2   12    2
 -0.01218770516109051    3    2   12    4
 -0.04273803023145159    3    2   12    6
 1.391980064199827e-15    3    2   12    7
 0.04224052478861635    3    2   12    9
 -0.02072069460113032    3    2   12   10
 3.596298606134418e-15    3    2   12   12
 0.04472570184613609    3    2   13    3
 0.01484933875057758    3    2   13    7
 0.04665721215129104    3    2   13    8
 -0.0112082720532259    3    2   13   12
 0.06568969329686125    3    2   14    5
 0.02484524628818943    3    2   14   11
 1.235123114895487e-15    3    2   14   14
 0.1084415693382788    3    2   15   14
 -1.228184220991579e-15    3    2   15   15
 -0.02718487117596263    3    2   16    3
 -0.01058094348586807    3    2   16    7
 0.01567864534014772    3    2   16    8
 -1.573068932059218e-15    3    2   16    9
 2.90132501357121e-15    3    2   16   10
 0.07622395056166568    3    2   16   12
 -2.620733491331961e-15    3    2   16   16
 0.0004501230675774778    3    2   17    1
 -0.003355631316298759    3    2   17    2
 -0.002522381932253909    3    2   17    4
 0.004027105228756704    3    2   17    6
 -1.203898092327904e-15    3    2   17    8
 -0.05136500261959252    3    2   17    9
 0.04683888776053777    3    2   17   10
 -0.09065882223905203    3    2   17   13
 -0.0123337186618289    3    2   17   16
 0.0228367007936452    3    2   18    1
 -0.02110044583924583    3    2   18    2
 -0.05457919352550034    3    2   18    4
 -0.01439512332131417    3    2   18    6
 0.009907845570225256    3    2   18    9
 0.04066560032545252    3    2   18   10
 -2.139781407617392e-15    3    2   18   12
 0.002499788516585187    3    2   18   13
 -0.02560425427400563    3    2   18   16
 -0.04872625710944862    3    2   19    3
 -0.02394380583041653    3    2   19    7
 0.002411192447631151    3    2   19    8
 0.006592367784770722    3    2   19   12
 1.251819828351763e-15    3    2   19   16
 0.01120656476392579    3    2   19   17
 0.1024741868254144    3    2   19   18
 -0.02420879112498239    3    2   20   14
 0.08687783581805723    3    2   21    5
 -0.04713045143269319    3    2   21   11
 -0.02771867370446169    3    2   21   15
 0.01063952990534696    3    2   21   20
 0.05286548918279358    3    2   22    3
 0.03109233421048098    3    2   22    7
 0.01830222685805757    3    2   22    8
 -0.03586377214196319    3    2   22   12
 0.02433587004747287    3    2   22   17
 0.009675184054882997    3    2   22   18
 0.0399236929683006    3    2   23    3
 0.03301234710773187    3    2   23    7
 0.06487253831237165    3    2   23    8
 -2.164934898019055e-15    3    2   23    9
 -1.160530005428484e-15    3    2   23   10
 -0.02144405136401244    3    2   23   12
 0.01090803509986218    3    2   23   17
 0.05308679955568991    3    2   23   18
 0.01393199630812276    3    2   24    1
 0.01380698527803323    3    2   24    2
 0.05443837645945145    3    2   24    4
 0.02447185904033772    3    2   24    6
 -1.971513230447641e-15    3    2   24    8
 -0.05895328174848244    3    2   24    9
 -0.03198194067991619    3    2   24   10
 0.01147619483337826    3    2   24   13
 -0.00931154665821299    3    2   24   16
 0.05100440437683459    3    2   24   19
 -0.004285559511107713    3    2   24   22
 0.02048861004568    3    2   24   23
 0.8736188656128071    3    3    1    1
 -0.006356736787065237    3    3    2    1
 0.6789117485258553    3    3    2    2
 0.6635267055975702    3    3    3    3
 0.007167680644197093    3    3    4    1
 0.014864762722121    3    3    4    2
 0.6051860290681125    3    3    4    4
 0.6217950821196385    3    3    5    5
 -0.000522876029830926    3    3    6    1
 0.07859076974790452    3    3    6    2
 2.288533945682403e-15    3    3    6    3
 0.03765610503435592    3    3    6    4
 0.356421771518387    3    3    6    6
 -2.193991516241667e-15    3    3    7    2
 0.1063349394563964    3    3    7    3
 -1.022619489088328e-15    3    3    7    6
 0.3477997726506452    3    3    7    7
 0.01263371176846721    3    3    8    3
 0.09588630282522963    3    3    8    7
 0.5191149173260364    3    3    8    8
 -0.0001235359205956493    3    3    9    1
 -0.02324996744894304    3    3    9    2
 -0.03013843357616787    3    3    9    4
 -0.1022481681356004    3    3    9    6
 0.5230944074664502    3    3    9    9
 -0.006673821340748337    3    3   10    1
 -0.01438711044158951    3    3   10    2
 -3.266484305264328e-15    3    3   10    3
 -0.1174708418577709    3    3   10    4
 -0.03660071927132269    3    3   10    6
 -1.625869577859262e-15    3    3   10    7
 0.006016709807188946    3    3   10    9
 0.5229909083521375    3    3   10   10
 -0.1420586034164488    3    3   11    5
 0.548080706518454    3    3   11   11
 -1.320063578846148e-15    3    3   12    2
 -0.1100358091098258    3    3   12    3
 4.092448154988625e-15    3    3   12    4
 -1.109424870920658e-15    3    3   12    5
 -2.129088463691253e-15    3    3   12    6
 -0.1026273910926593    3    3   12    7
 -0.02739982581816585    3    3   12    8
 0.5249606829879707    3    3   12   12
 -0.002287123215191744    3    3   13    1
 0.05214344240698073    3    3   13    2
 -0.05302940442353424    3    3   13    4
 0.02741445377939794    3    3   13    6
 -2.315855840429037e-15    3    3   13    7
 0.01065129493393615    3    3   13    9
 -0.02939701697378584    3    3   13   10
 0.5053240549575978    3    3   13   13
 0.5294979154329079    3    3   14   14
 0.02597627089228924    3    3   15    5
 0.0313525589376693    3    3   15   11
 0.504814722988808    3    3   15   15
 0.004982988503670896    3    3   16    1
 -0.08351260816483165    3    3   16    2
 0.02171766292596412    3    3   16    4
 -0.06142748923790454    3    3   16    6
 5.099870178937316e-15    3    3   16    7
 -0.00983727099354491    3    3   16    9
 -0.01768507877483129    3    3   16   10
 -0.00697056596613372    3    3   16   13
 0.5397645423728654    3    3   16   16
 -0.02313069738277439    3    3   17    3
 0.0008217235296410939    3    3   17    7
 -0.0006076644486216268    3    3   17    8
 -0.02655121856745981    3    3   17   12
 0.4983368624202771    3    3   17   17
 -0.001065700951813795    3    3   18    3
 0.01771124186259306    3    3   18    7
 0.099604421780059    3    3   18    8
 -2.029626466892864e-15    3    3   18    9
 -1.349614864309956e-15    3    3   18   10
 -0.0603589311499521    3    3   18   12
 2.098148044193948e-15    3    3   18   16
 0.01117301129151205    3    3   18   17
 0.5939107866666113    3    3   18   18
 -0.0007044270199069686    3    3   19    1
 0.001391527047330735    3    3   19    2
 0.005747742014915592    3    3   19    4
 0.02817736510469307    3    3   19    6
 -1.661865089985781e-15    3    3   19    8
 -0.1023582034075471    3    3   19    9
 -0.01757421466073744    3    3   19   10
 0.01255258520867016    3    3   19   13
 -0.01183845387184472    3    3   19   16
 0.5937172168577974    3    3   19   19
 0.01853349378373245    3    3   20    5
 -0.01646157383078803    3    3   20   11
 0.04996642155111476    3    3   20   15
 0.6080204468650501    3    3   20   20
 0.06652919293756573    3    3   21   14
 0.6508595550753841    3    3   21   21
 0.002270964348802828    3    3   22    1
 0.02342174760029863    3    3   22    2
 -0.02750630328690049    3    3   22    4
 0.003015433109137032    3    3   22    6
 0.02617195561939389    3    3   22    9
 0.003216013218286969    3    3   22   10
 0.06666454624373377    3    3   22   13
 0.01258451377694162    3    3   22   16
 -0.012829583948231    3    3   22   19
 0.6281225672807769    3    3   22   22
 0.005069679788331271    3    3   23    1
 0.0243450801710359    3    3   23    2
 -0.004677680039173314    3    3   23    4
 0.01030419577764641    3    3   23    6
 -1.106753577673203e-15    3    3   23    8
 -0.03968932706792945    3    3   23    9